data file generated by init code for using CHARMM in LAMMPS
129	 atoms
128	 bonds
247	 angles
452	 dihedrals
4	 impropers
	20	 atom types
	27	 bond types
	65	 angle types
	68	 dihedral types
	15	 improper types

-50	50 xlo xhi
-50	50 ylo yhi
-50	50 zlo zhi

Masses

	1	1
	2	1
	3	12.011
	4	12.011
	5	12.011
	6	12.011
	7	1.008
	8	1.008
	9	1.008
	10	1.008
	11	1.008
	12	14.007
	13	15.9994
	14	15.9994
	15	12.011
	16	1.008
	17	99
	18	99
	19	99
	20	99

Atoms

1	1	12	-0.53	-0.0535227	-0.674665	-17.8126
2	1	7	0.26	-0.545527	-0.943666	-18.6356
3	1	3	0.58	-0.564528	-0.947664	-16.5996
4	1	13	-0.53	-1.63553	-1.52666	-16.5196
5	1	5	-0.26	0.203477	-0.528665	-15.3536
6	1	10	0.13	0.344476	0.601336	-15.3446
7	1	10	0.13	1.19348	-1.03266	-15.3566
8	1	5	-0.18	-0.605525	-0.963667	-14.1296
9	1	10	0.09	-1.60152	-0.468664	-14.1436
10	1	10	0.09	-0.735526	-2.06767	-14.1396
11	1	5	-0.18	0.15648	-0.547663	-12.8726
12	1	10	0.09	1.15347	-1.04267	-12.8616
13	1	10	0.09	0.287473	0.556334	-12.8656
14	1	5	-0.18	-0.640525	-0.976667	-11.6376
15	1	10	0.09	-1.63452	-0.481665	-11.6496
16	1	10	0.09	-0.770522	-2.07867	-11.6446
17	1	5	-0.18	0.123475	-0.561666	-10.3786
18	1	10	0.09	1.11548	-1.05466	-10.3666
19	1	10	0.09	0.252473	0.541338	-10.3696
20	1	5	-0.18	-0.674525	-0.988665	-9.14263
21	1	10	0.09	-1.66853	-0.495661	-9.15363
22	1	10	0.09	-0.804526	-2.09267	-9.15064
23	1	5	-0.18	0.0864773	-0.574667	-7.88263
24	1	10	0.09	1.08148	-1.06867	-7.87063
25	1	10	0.09	0.217473	0.529333	-7.87463
26	1	5	-0.18	-0.710524	-1.00266	-6.64763
27	1	10	0.09	-1.70353	-0.507662	-6.65963
28	1	10	0.09	-0.839526	-2.10567	-6.65463
29	1	5	-0.18	0.0524723	-0.587664	-5.38763
30	1	10	0.09	1.04548	-1.08066	-5.37563
31	1	10	0.09	0.182474	0.515329	-5.38063
32	1	5	-0.18	-0.744525	-1.01567	-4.15263
33	1	10	0.09	-1.73952	-0.521665	-4.16464
34	1	10	0.09	-0.874526	-2.11767	-4.16063
35	1	5	-0.18	0.0164733	-0.599665	-2.89158
36	1	10	0.09	1.01247	-1.09367	-2.88058
37	1	10	0.09	0.148473	0.504335	-2.88558
38	1	5	-0.18	-0.779524	-1.02867	-1.65758
39	1	10	0.09	-1.77453	-0.534666	-1.66858
40	1	10	0.09	-0.910525	-2.13166	-1.66559
41	1	5	-0.18	-0.0185267	-0.613665	-0.397584
42	1	10	0.09	0.977472	-1.10667	-0.386583
43	1	10	0.09	0.112474	0.490339	-0.389585
44	1	5	-0.18	-0.814524	-1.04067	0.836417
45	1	10	0.09	-1.80953	-0.547663	0.825415
46	1	10	0.09	-0.944525	-2.14467	0.830416
47	1	5	-0.18	-0.0525267	-0.626665	2.09742
48	1	10	0.09	0.942472	-1.12067	2.10942
49	1	10	0.09	0.0784733	0.476339	2.10342
50	1	5	-0.18	-0.849524	-1.05567	3.33142
51	1	10	0.09	-1.84453	-0.561666	3.32142
52	1	10	0.09	-0.980525	-2.15866	3.32442
53	1	5	-0.18	-0.0905207	-0.641664	4.59342
54	1	10	0.09	0.904474	-1.13267	4.60242
55	1	10	0.09	0.0404713	0.461336	4.59842
56	1	5	-0.18	-0.893527	-1.07167	5.82441
57	1	10	0.09	-1.03353	-2.17267	5.78541
58	1	10	0.09	-1.89152	-0.589666	5.78141
59	1	5	-0.18	-0.164527	-0.674665	7.11041
60	1	10	0.09	-0.0155247	0.426336	7.13341
61	1	10	0.09	0.836477	-1.15067	7.13741
62	1	5	-0.18	-0.957526	-1.10066	8.34642
63	1	10	0.09	-1.13252	-2.19766	8.32442
64	1	10	0.09	-1.94452	-0.589666	8.35042
65	1	5	-0.18	-0.184527	-0.732664	9.61442
66	1	10	0.09	-0.0125257	0.365336	9.64341
67	1	10	0.09	0.806474	-1.23567	9.60642
68	1	5	-0.18	-0.966529	-1.16266	10.8574
69	1	10	0.09	-1.13553	-2.26066	10.8194
70	1	10	0.09	-1.96053	-0.670664	10.8484
71	1	6	-0.3	-0.206526	-0.794664	12.1314
72	1	11	0.1	0.782476	-1.29867	12.1374
73	1	11	0.1	-0.797522	-1.12667	13.0124
74	1	11	0.1	-0.0615257	0.308336	12.1744
75	1	4	0.03	1.20148	0.00433895	-17.9216
76	1	9	0.12	1.85848	-0.213667	-17.0516
77	1	5	0.06	1.94948	-0.466665	-19.1786
78	1	10	0.105	1.33348	-0.19066	-20.0616
79	1	10	0.105	2.90547	0.0903339	-19.2816
80	1	14	-0.56	2.20147	-1.86167	-19.1336
81	1	8	0.34	2.62948	-2.13267	-19.9486
82	1	4	0.15	0.943156	1.48008	-18.0023
83	1	9	0.09	1.28967	-0.131027	-18.2057
84	1	14	-0.56	1.2118	1.45806	-16.8649
85	1	8	0.34	2.14074	1.66797	-16.9842
86	1	15	-0.09	0.935888	1.6634	-19.1982
87	1	16	0.09	1.86477	2.28918	-18.9889
88	1	15	-0.09	1.04995	1.16989	-20.4365
89	1	16	0.09	2.16575	1.02586	-20.6162
90	1	5	-0.18	0.525016	1.88073	-21.6505
91	1	10	0.09	-0.578419	1.99066	-21.5918
92	1	10	0.09	0.949966	2.90169	-21.752
93	1	5	-0.18	0.858318	1.10312	-22.925
94	1	10	0.09	1.9568	1.0371	-23.0742
95	1	10	0.09	0.381776	0.100148	-22.9115
96	1	5	-0.18	0.26408	1.89719	-24.0868
97	1	10	0.09	-0.845705	1.95729	-24.0732
98	1	10	0.09	0.726786	2.89451	-24.2374
99	1	5	-0.18	1.47508	1.41467	-25.4907
100	1	10	0.09	1.7135	1.00074	-25.5575
101	1	10	0.09	0.148682	0.0702949	-25.3959
102	1	5	-0.18	0.0406273	1.8529	-26.4916
103	1	10	0.09	-1.06575	1.91976	-26.5581
104	1	10	0.09	0.4845	2.84321	-26.7199
105	1	5	-0.18	0.391094	1.04511	-27.7405
106	1	10	0.09	1.45839	0.967683	-28.0367
107	1	10	0.09	-0.0816107	0.0476669	-27.8773
108	1	5	-0.18	-0.184264	1.80185	-28.9393
109	1	10	0.09	-1.28649	1.88251	-29.039
110	1	10	0.09	0.241921	2.79352	-29.1992
111	1	5	-0.18	0.145245	1.02503	-30.2152
112	1	10	0.09	1.20985	0.929628	-30.5153
113	1	10	0.09	-0.311305	0.0247699	-30.3547
114	1	5	-0.18	-0.411427	1.74676	-31.4447
115	1	10	0.09	-1.5161	1.84509	-31.5215
116	1	10	0.09	0.00293026	2.75078	-31.6787
117	1	5	-0.18	-0.102737	1.00234	-32.7414
118	1	10	0.09	0.973237	0.893555	-32.9966
119	1	10	0.09	-0.547605	-0.0106381	-32.84
120	1	5	-0.18	-0.648675	1.70291	-33.9833
121	1	10	0.09	-1.75545	1.80785	-34.0025
122	1	10	0.09	-0.231996	2.71555	-34.1612
123	1	5	-0.18	-0.349364	0.969301	-35.2919
124	1	10	0.09	0.741908	0.857545	-35.4707
125	1	10	0.09	-0.779592	-0.0540441	-35.3095
126	1	6	-0.3	-0.890157	1.65714	-36.5446
127	1	11	0.1	-0.674414	1.126	-37.4943
128	1	11	0.1	-1.99322	1.77155	-36.4938
129	1	11	0.1	-0.466754	2.68174	-36.6376

Bonds

1	12	1	2
2	13	1	3
3	14	1	75
4	15	3	4
5	16	3	5
6	6	5	6
7	6	5	7
8	7	5	8
9	6	8	9
10	6	8	10
11	7	8	11
12	6	11	12
13	6	11	13
14	7	11	14
15	6	14	15
16	6	14	16
17	7	14	17
18	6	17	18
19	6	17	19
20	7	17	20
21	6	20	21
22	6	20	22
23	7	20	23
24	6	23	24
25	6	23	25
26	7	23	26
27	6	26	27
28	6	26	28
29	7	26	29
30	6	29	30
31	6	29	31
32	7	29	32
33	6	32	33
34	6	32	34
35	7	32	35
36	6	35	36
37	6	35	37
38	7	35	38
39	6	38	39
40	6	38	40
41	7	38	41
42	6	41	42
43	6	41	43
44	7	41	44
45	6	44	45
46	6	44	46
47	7	44	47
48	6	47	48
49	6	47	49
50	7	47	50
51	6	50	51
52	6	50	52
53	7	50	53
54	6	53	54
55	6	53	55
56	7	53	56
57	6	56	57
58	6	56	58
59	7	56	59
60	6	59	60
61	6	59	61
62	7	59	62
63	6	62	63
64	6	62	64
65	7	62	65
66	6	65	66
67	6	65	67
68	7	65	68
69	6	68	69
70	6	68	70
71	9	68	71
72	11	71	72
73	11	71	73
74	11	71	74
75	2	75	76
76	4	75	77
77	10	75	82
78	6	77	78
79	6	77	79
80	17	77	80
81	5	80	81
82	2	82	83
83	3	82	84
84	19	82	86
85	5	84	85
86	8	86	87
87	21	86	88
88	8	88	89
89	20	88	90
90	6	90	91
91	6	90	92
92	7	90	93
93	6	93	94
94	6	93	95
95	7	93	96
96	6	96	97
97	6	96	98
98	7	96	99
99	6	99	100
100	6	99	101
101	7	99	102
102	6	102	103
103	6	102	104
104	7	102	105
105	6	105	106
106	6	105	107
107	7	105	108
108	6	108	109
109	6	108	110
110	7	108	111
111	6	111	112
112	6	111	113
113	7	111	114
114	6	114	115
115	6	114	116
116	7	114	117
117	6	117	118
118	6	117	119
119	7	117	120
120	6	120	121
121	6	120	122
122	7	120	123
123	6	123	124
124	6	123	125
125	9	123	126
126	11	126	127
127	11	126	128
128	11	126	129

Angles

1	11	2	1	3
2	12	2	1	75
3	13	3	1	75
4	14	1	3	4
5	16	1	3	5
6	17	4	3	5
7	18	3	5	6
8	18	3	5	7
9	19	3	5	8
10	9	6	5	7
11	10	6	5	8
12	10	7	5	8
13	10	5	8	9
14	10	5	8	10
15	32	5	8	11
16	9	9	8	10
17	10	9	8	11
18	10	10	8	11
19	10	8	11	12
20	10	8	11	13
21	32	8	11	14
22	9	12	11	13
23	10	12	11	14
24	10	13	11	14
25	10	11	14	15
26	10	11	14	16
27	32	11	14	17
28	9	15	14	16
29	10	15	14	17
30	10	16	14	17
31	10	14	17	18
32	10	14	17	19
33	32	14	17	20
34	9	18	17	19
35	10	18	17	20
36	10	19	17	20
37	10	17	20	21
38	10	17	20	22
39	32	17	20	23
40	9	21	20	22
41	10	21	20	23
42	10	22	20	23
43	10	20	23	24
44	10	20	23	25
45	32	20	23	26
46	9	24	23	25
47	10	24	23	26
48	10	25	23	26
49	10	23	26	27
50	10	23	26	28
51	32	23	26	29
52	9	27	26	28
53	10	27	26	29
54	10	28	26	29
55	10	26	29	30
56	10	26	29	31
57	32	26	29	32
58	9	30	29	31
59	10	30	29	32
60	10	31	29	32
61	10	29	32	33
62	10	29	32	34
63	32	29	32	35
64	9	33	32	34
65	10	33	32	35
66	10	34	32	35
67	10	32	35	36
68	10	32	35	37
69	32	32	35	38
70	9	36	35	37
71	10	36	35	38
72	10	37	35	38
73	10	35	38	39
74	10	35	38	40
75	32	35	38	41
76	9	39	38	40
77	10	39	38	41
78	10	40	38	41
79	10	38	41	42
80	10	38	41	43
81	32	38	41	44
82	9	42	41	43
83	10	42	41	44
84	10	43	41	44
85	10	41	44	45
86	10	41	44	46
87	32	41	44	47
88	9	45	44	46
89	10	45	44	47
90	10	46	44	47
91	10	44	47	48
92	10	44	47	49
93	32	44	47	50
94	9	48	47	49
95	10	48	47	50
96	10	49	47	50
97	10	47	50	51
98	10	47	50	52
99	32	47	50	53
100	9	51	50	52
101	10	51	50	53
102	10	52	50	53
103	10	50	53	54
104	10	50	53	55
105	32	50	53	56
106	9	54	53	55
107	10	54	53	56
108	10	55	53	56
109	10	53	56	57
110	10	53	56	58
111	32	53	56	59
112	9	57	56	58
113	10	57	56	59
114	10	58	56	59
115	10	56	59	60
116	10	56	59	61
117	32	56	59	62
118	9	60	59	61
119	10	60	59	62
120	10	61	59	62
121	10	59	62	63
122	10	59	62	64
123	32	59	62	65
124	9	63	62	64
125	10	63	62	65
126	10	64	62	65
127	10	62	65	66
128	10	62	65	67
129	32	62	65	68
130	9	66	65	67
131	10	66	65	68
132	10	67	65	68
133	10	65	68	69
134	10	65	68	70
135	21	65	68	71
136	9	69	68	70
137	22	69	68	71
138	22	70	68	71
139	23	68	71	72
140	23	68	71	73
141	23	68	71	74
142	20	72	71	73
143	20	72	71	74
144	20	73	71	74
145	24	1	75	76
146	25	1	75	77
147	26	1	75	82
148	3	76	75	77
149	29	76	75	82
150	15	77	75	82
151	7	75	77	78
152	7	75	77	79
153	27	75	77	80
154	9	78	77	79
155	28	78	77	80
156	28	79	77	80
157	31	77	80	81
158	29	75	82	83
159	5	75	82	84
160	34	75	82	86
161	28	83	82	84
162	2	83	82	86
163	4	84	82	86
164	6	82	84	85
165	8	82	86	87
166	35	82	86	88
167	36	87	86	88
168	36	86	88	89
169	37	86	88	90
170	38	88	90	91
171	38	88	90	92
172	30	88	90	93
173	9	91	90	92
174	10	91	90	93
175	10	92	90	93
176	10	90	93	94
177	10	90	93	95
178	32	90	93	96
179	9	94	93	95
180	10	94	93	96
181	10	95	93	96
182	10	93	96	97
183	10	93	96	98
184	32	93	96	99
185	9	97	96	98
186	10	97	96	99
187	10	98	96	99
188	10	96	99	100
189	10	96	99	101
190	32	96	99	102
191	9	100	99	101
192	10	100	99	102
193	10	101	99	102
194	10	99	102	103
195	10	99	102	104
196	32	99	102	105
197	9	103	102	104
198	10	103	102	105
199	10	104	102	105
200	10	102	105	106
201	10	102	105	107
202	32	102	105	108
203	9	106	105	107
204	10	106	105	108
205	10	107	105	108
206	10	105	108	109
207	10	105	108	110
208	32	105	108	111
209	9	109	108	110
210	10	109	108	111
211	10	110	108	111
212	10	108	111	112
213	10	108	111	113
214	32	108	111	114
215	9	112	111	113
216	10	112	111	114
217	10	113	111	114
218	10	111	114	115
219	10	111	114	116
220	32	111	114	117
221	9	115	114	116
222	10	115	114	117
223	10	116	114	117
224	10	114	117	118
225	10	114	117	119
226	32	114	117	120
227	9	118	117	119
228	10	118	117	120
229	10	119	117	120
230	10	117	120	121
231	10	117	120	122
232	32	117	120	123
233	9	121	120	122
234	10	121	120	123
235	10	122	120	123
236	10	120	123	124
237	10	120	123	125
238	21	120	123	126
239	9	124	123	125
240	22	124	123	126
241	22	125	123	126
242	23	123	126	127
243	23	123	126	128
244	23	123	126	129
245	20	127	126	128
246	20	127	126	129
247	20	128	126	129

Dihedrals

1	1	2	1	3	4
2	1	2	1	3	5
3	1	75	1	3	4
4	1	75	1	3	5
5	2	2	1	75	76
6	2	2	1	75	77
7	2	2	1	75	82
8	2	3	1	75	76
9	5	3	1	75	77
10	5	3	1	75	82
11	6	1	3	5	6
12	6	1	3	5	7
13	7	1	3	5	8
14	8	4	3	5	6
15	8	4	3	5	7
16	9	4	3	5	8
17	4	3	5	8	9
18	4	3	5	8	10
19	4	3	5	8	11
20	4	6	5	8	9
21	4	6	5	8	10
22	4	6	5	8	11
23	4	7	5	8	9
24	4	7	5	8	10
25	4	7	5	8	11
26	4	5	8	11	12
27	4	5	8	11	13
28	10	5	8	11	14
29	19	5	8	11	14
30	20	5	8	11	14
31	21	5	8	11	14
32	4	9	8	11	12
33	4	9	8	11	13
34	4	9	8	11	14
35	4	10	8	11	12
36	4	10	8	11	13
37	4	10	8	11	14
38	4	8	11	14	15
39	4	8	11	14	16
40	10	8	11	14	17
41	19	8	11	14	17
42	20	8	11	14	17
43	21	8	11	14	17
44	4	12	11	14	15
45	4	12	11	14	16
46	4	12	11	14	17
47	4	13	11	14	15
48	4	13	11	14	16
49	4	13	11	14	17
50	4	11	14	17	18
51	4	11	14	17	19
52	10	11	14	17	20
53	19	11	14	17	20
54	20	11	14	17	20
55	21	11	14	17	20
56	4	15	14	17	18
57	4	15	14	17	19
58	4	15	14	17	20
59	4	16	14	17	18
60	4	16	14	17	19
61	4	16	14	17	20
62	4	14	17	20	21
63	4	14	17	20	22
64	10	14	17	20	23
65	19	14	17	20	23
66	20	14	17	20	23
67	21	14	17	20	23
68	4	18	17	20	21
69	4	18	17	20	22
70	4	18	17	20	23
71	4	19	17	20	21
72	4	19	17	20	22
73	4	19	17	20	23
74	4	17	20	23	24
75	4	17	20	23	25
76	10	17	20	23	26
77	19	17	20	23	26
78	20	17	20	23	26
79	21	17	20	23	26
80	4	21	20	23	24
81	4	21	20	23	25
82	4	21	20	23	26
83	4	22	20	23	24
84	4	22	20	23	25
85	4	22	20	23	26
86	4	20	23	26	27
87	4	20	23	26	28
88	10	20	23	26	29
89	19	20	23	26	29
90	20	20	23	26	29
91	21	20	23	26	29
92	4	24	23	26	27
93	4	24	23	26	28
94	4	24	23	26	29
95	4	25	23	26	27
96	4	25	23	26	28
97	4	25	23	26	29
98	4	23	26	29	30
99	4	23	26	29	31
100	10	23	26	29	32
101	19	23	26	29	32
102	20	23	26	29	32
103	21	23	26	29	32
104	4	27	26	29	30
105	4	27	26	29	31
106	4	27	26	29	32
107	4	28	26	29	30
108	4	28	26	29	31
109	4	28	26	29	32
110	4	26	29	32	33
111	4	26	29	32	34
112	10	26	29	32	35
113	19	26	29	32	35
114	20	26	29	32	35
115	21	26	29	32	35
116	4	30	29	32	33
117	4	30	29	32	34
118	4	30	29	32	35
119	4	31	29	32	33
120	4	31	29	32	34
121	4	31	29	32	35
122	4	29	32	35	36
123	4	29	32	35	37
124	10	29	32	35	38
125	19	29	32	35	38
126	20	29	32	35	38
127	21	29	32	35	38
128	4	33	32	35	36
129	4	33	32	35	37
130	4	33	32	35	38
131	4	34	32	35	36
132	4	34	32	35	37
133	4	34	32	35	38
134	4	32	35	38	39
135	4	32	35	38	40
136	10	32	35	38	41
137	19	32	35	38	41
138	20	32	35	38	41
139	21	32	35	38	41
140	4	36	35	38	39
141	4	36	35	38	40
142	4	36	35	38	41
143	4	37	35	38	39
144	4	37	35	38	40
145	4	37	35	38	41
146	4	35	38	41	42
147	4	35	38	41	43
148	10	35	38	41	44
149	19	35	38	41	44
150	20	35	38	41	44
151	21	35	38	41	44
152	4	39	38	41	42
153	4	39	38	41	43
154	4	39	38	41	44
155	4	40	38	41	42
156	4	40	38	41	43
157	4	40	38	41	44
158	4	38	41	44	45
159	4	38	41	44	46
160	10	38	41	44	47
161	19	38	41	44	47
162	20	38	41	44	47
163	21	38	41	44	47
164	4	42	41	44	45
165	4	42	41	44	46
166	4	42	41	44	47
167	4	43	41	44	45
168	4	43	41	44	46
169	4	43	41	44	47
170	4	41	44	47	48
171	4	41	44	47	49
172	10	41	44	47	50
173	19	41	44	47	50
174	20	41	44	47	50
175	21	41	44	47	50
176	4	45	44	47	48
177	4	45	44	47	49
178	4	45	44	47	50
179	4	46	44	47	48
180	4	46	44	47	49
181	4	46	44	47	50
182	4	44	47	50	51
183	4	44	47	50	52
184	10	44	47	50	53
185	19	44	47	50	53
186	20	44	47	50	53
187	21	44	47	50	53
188	4	48	47	50	51
189	4	48	47	50	52
190	4	48	47	50	53
191	4	49	47	50	51
192	4	49	47	50	52
193	4	49	47	50	53
194	4	47	50	53	54
195	4	47	50	53	55
196	10	47	50	53	56
197	19	47	50	53	56
198	20	47	50	53	56
199	21	47	50	53	56
200	4	51	50	53	54
201	4	51	50	53	55
202	4	51	50	53	56
203	4	52	50	53	54
204	4	52	50	53	55
205	4	52	50	53	56
206	4	50	53	56	57
207	4	50	53	56	58
208	10	50	53	56	59
209	19	50	53	56	59
210	20	50	53	56	59
211	21	50	53	56	59
212	4	54	53	56	57
213	4	54	53	56	58
214	4	54	53	56	59
215	4	55	53	56	57
216	4	55	53	56	58
217	4	55	53	56	59
218	4	53	56	59	60
219	4	53	56	59	61
220	10	53	56	59	62
221	19	53	56	59	62
222	20	53	56	59	62
223	21	53	56	59	62
224	4	57	56	59	60
225	4	57	56	59	61
226	4	57	56	59	62
227	4	58	56	59	60
228	4	58	56	59	61
229	4	58	56	59	62
230	4	56	59	62	63
231	4	56	59	62	64
232	10	56	59	62	65
233	19	56	59	62	65
234	20	56	59	62	65
235	21	56	59	62	65
236	4	60	59	62	63
237	4	60	59	62	64
238	4	60	59	62	65
239	4	61	59	62	63
240	4	61	59	62	64
241	4	61	59	62	65
242	4	59	62	65	66
243	4	59	62	65	67
244	10	59	62	65	68
245	19	59	62	65	68
246	20	59	62	65	68
247	21	59	62	65	68
248	4	63	62	65	66
249	4	63	62	65	67
250	4	63	62	65	68
251	4	64	62	65	66
252	4	64	62	65	67
253	4	64	62	65	68
254	4	62	65	68	69
255	4	62	65	68	70
256	11	62	65	68	71
257	22	62	65	68	71
258	23	62	65	68	71
259	24	62	65	68	71
260	4	66	65	68	69
261	4	66	65	68	70
262	4	66	65	68	71
263	4	67	65	68	69
264	4	67	65	68	70
265	4	67	65	68	71
266	12	65	68	71	72
267	12	65	68	71	73
268	12	65	68	71	74
269	12	69	68	71	72
270	12	69	68	71	73
271	12	69	68	71	74
272	12	70	68	71	72
273	12	70	68	71	73
274	12	70	68	71	74
275	3	1	75	77	78
276	3	1	75	77	79
277	3	1	75	77	80
278	3	76	75	77	78
279	3	76	75	77	79
280	3	76	75	77	80
281	3	82	75	77	78
282	3	82	75	77	79
283	3	82	75	77	80
284	3	1	75	82	83
285	3	1	75	82	84
286	3	1	75	82	86
287	3	76	75	82	83
288	3	76	75	82	84
289	3	76	75	82	86
290	3	77	75	82	83
291	3	77	75	82	84
292	3	77	75	82	86
293	13	75	77	80	81
294	13	78	77	80	81
295	13	79	77	80	81
296	14	75	82	84	85
297	14	83	82	84	85
298	14	86	82	84	85
299	3	75	82	86	87
300	7	75	82	86	88
301	6	83	82	86	87
302	15	83	82	86	88
303	16	84	82	86	87
304	7	84	82	86	88
305	17	82	86	88	89
306	17	82	86	88	90
307	18	87	86	88	89
308	17	87	86	88	90
309	15	86	88	90	91
310	15	86	88	90	92
311	7	86	88	90	93
312	6	89	88	90	91
313	6	89	88	90	92
314	3	89	88	90	93
315	4	86	90	93	94
316	4	86	90	93	95
317	4	86	90	93	96
318	4	91	90	93	94
319	4	91	90	93	95
320	4	91	90	93	96
321	4	92	90	93	94
322	4	92	90	93	95
323	4	92	90	93	96
324	4	90	93	96	97
325	4	90	93	96	98
326	10	90	93	96	99
327	19	90	93	96	99
328	20	90	93	96	99
329	21	90	93	96	99
330	4	94	93	96	97
331	4	94	93	96	98
332	4	94	93	96	99
333	4	95	93	96	97
334	4	95	93	96	98
335	4	95	93	96	99
336	4	93	96	99	100
337	4	93	96	99	101
338	10	93	96	99	102
339	19	93	96	99	102
340	20	93	96	99	102
341	21	93	96	99	102
342	4	97	96	99	100
343	4	97	96	99	101
344	4	97	96	99	102
345	4	98	96	99	100
346	4	98	96	99	101
347	4	98	96	99	102
348	4	96	99	102	103
349	4	96	99	102	104
350	10	96	99	102	105
351	19	96	99	102	105
352	20	96	99	102	105
353	21	96	99	102	105
354	4	100	99	102	103
355	4	100	99	102	104
356	4	100	99	102	105
357	4	101	99	102	103
358	4	101	99	102	104
359	4	101	99	102	105
360	4	99	102	105	106
361	4	99	102	105	107
362	10	99	102	105	108
363	19	99	102	105	108
364	20	99	102	105	108
365	21	99	102	105	108
366	4	103	102	105	106
367	4	103	102	105	107
368	4	103	102	105	108
369	4	104	102	105	106
370	4	104	102	105	107
371	4	104	102	105	108
372	4	102	105	108	109
373	4	102	105	108	110
374	10	102	105	108	111
375	19	102	105	108	111
376	20	102	105	108	111
377	21	102	105	108	111
378	4	106	105	108	109
379	4	106	105	108	110
380	4	106	105	108	111
381	4	107	105	108	109
382	4	107	105	108	110
383	4	107	105	108	111
384	4	105	108	111	112
385	4	105	108	111	113
386	10	105	108	111	114
387	19	105	108	111	114
388	20	105	108	111	114
389	21	105	108	111	114
390	4	109	108	111	112
391	4	109	108	111	113
392	4	109	108	111	114
393	4	110	108	111	112
394	4	110	108	111	113
395	4	110	108	111	114
396	4	108	111	114	115
397	4	108	111	114	116
398	10	108	111	114	117
399	19	108	111	114	117
400	20	108	111	114	117
401	21	108	111	114	117
402	4	112	111	114	115
403	4	112	111	114	116
404	4	112	111	114	117
405	4	113	111	114	115
406	4	113	111	114	116
407	4	113	111	114	117
408	4	111	114	117	118
409	4	111	114	117	119
410	10	111	114	117	120
411	19	111	114	117	120
412	20	111	114	117	120
413	21	111	114	117	120
414	4	115	114	117	118
415	4	115	114	117	119
416	4	115	114	117	120
417	4	116	114	117	118
418	4	116	114	117	119
419	4	116	114	117	120
420	4	114	117	120	121
421	4	114	117	120	122
422	10	114	117	120	123
423	19	114	117	120	123
424	20	114	117	120	123
425	21	114	117	120	123
426	4	118	117	120	121
427	4	118	117	120	122
428	4	118	117	120	123
429	4	119	117	120	121
430	4	119	117	120	122
431	4	119	117	120	123
432	4	117	120	123	124
433	4	117	120	123	125
434	11	117	120	123	126
435	22	117	120	123	126
436	23	117	120	123	126
437	24	117	120	123	126
438	4	121	123	123	124
439	4	121	123	123	125
440	4	121	123	123	126
441	4	122	123	123	124
442	4	122	123	123	125
443	4	122	123	123	126
444	12	123	123	126	127
445	12	123	123	126	128
446	12	123	123	126	129
447	12	124	123	126	127
448	12	124	123	126	128
449	12	124	123	126	129
450	12	125	123	126	127
451	12	125	123	126	128
452	12	125	123	126	129

Impropers

1	1	1	3	75	2
2	2	3	5	1	4
3	3	75	1	82	77
4	3	82	84	86	75

